 running on   64 total cores
 distrk:  each k-point on    8 cores,    8 groups
 distr:  one band on    1 cores,    8 groups
 using from now: INCAR     
 vasp.5.3.5 31Mar14 (build Jun 29 2016 14:45:05) complex                        
  
 POSCAR found type information on POSCAR  O  Al Y 
 POSCAR found :  3 types and      80 ions
 scaLAPACK will be used

 ----------------------------------------------------------------------------- 
|                                                                             |
|           W    W    AA    RRRRR   N    N  II  N    N   GGGG   !!!           |
|           W    W   A  A   R    R  NN   N  II  NN   N  G    G  !!!           |
|           W    W  A    A  R    R  N N  N  II  N N  N  G       !!!           |
|           W WW W  AAAAAA  RRRRR   N  N N  II  N  N N  G  GGG   !            |
|           WW  WW  A    A  R   R   N   NN  II  N   NN  G    G                |
|           W    W  A    A  R    R  N    N  II  N    N   GGGG   !!!           |
|                                                                             |
|      For optimal performance we recommend to set                            |
|        NCORE= 4 - approx SQRT( number of cores)                             |
|      NCORE specifies how many cores store one orbital (NPAR=cpu/NCORE).     |
|      This setting can  greatly improve the performance of VASP for DFT.     |
|      The default, NPAR=number of cores might be grossly inefficient         |
|      on modern multi-core architectures or massively parallel machines.     |
|      Do your own testing !!!!                                               |
|      Unfortunately you need to use the default for GW and RPA calculations. |
|      (for HF NCORE is supported but not extensively tested yet)             |
|                                                                             |
 ----------------------------------------------------------------------------- 


 ----------------------------------------------------------------------------- 
|                                                                             |
|           W    W    AA    RRRRR   N    N  II  N    N   GGGG   !!!           |
|           W    W   A  A   R    R  NN   N  II  NN   N  G    G  !!!           |
|           W    W  A    A  R    R  N N  N  II  N N  N  G       !!!           |
|           W WW W  AAAAAA  RRRRR   N  N N  II  N  N N  G  GGG   !            |
|           WW  WW  A    A  R   R   N   NN  II  N   NN  G    G                |
|           W    W  A    A  R    R  N    N  II  N    N   GGGG   !!!           |
|                                                                             |
|      You have enabled k-point parallelism (KPAR>1).                         |
|      This developmental code was originally  written by Paul Kent at ORNL,  |
|      and carefully double checked in Vienna.                                |
|      GW as well as linear response parallelism added by Martijn Marsman     |
|      and Georg Kresse.                                                      |
|      Carefully verify results versus KPAR=1.                                |
|      Report problems to Paul Kent and Vienna.                               |
|                                                                             |
 ----------------------------------------------------------------------------- 

 WARNING: PSMAXN for non-local potential too small
 LDA part: xc-table for Pade appr. of Perdew
 POSCAR found type information on POSCAR  O  Al Y 
 POSCAR found :  3 types and      80 ions
 generate k-points for:    4    4    4
 POSCAR, INCAR and KPOINTS ok, starting setup
 FFT: planning ...
 WAVECAR not read
 entering main loop
       N       E                     dE             d eps       ncg     rms          rms(c)
DAV:   1     0.522694882607E+04    0.52269E+04   -0.34247E+05 20736   0.252E+03
DAV:   2     0.966439345784E+02   -0.51303E+04   -0.48983E+04 25552   0.520E+02
DAV:   3    -0.702994642614E+03   -0.79964E+03   -0.79197E+03 24808   0.178E+02
DAV:   4    -0.747969353890E+03   -0.44975E+02   -0.44775E+02 27088   0.371E+01
DAV:   5    -0.750202800181E+03   -0.22334E+01   -0.22325E+01 31640   0.799E+00    0.565E+01
DAV:   6    -0.649335378541E+03    0.10087E+03   -0.46942E+02 24472   0.409E+01    0.163E+01
DAV:   7    -0.651958207651E+03   -0.26228E+01   -0.50762E+01 29808   0.119E+01    0.117E+01
DAV:   8    -0.651844864241E+03    0.11334E+00   -0.65571E+00 27352   0.527E+00    0.394E+00
DAV:   9    -0.651827043709E+03    0.17821E-01   -0.24397E+00 28736   0.282E+00    0.129E+00
DAV:  10    -0.651804080389E+03    0.22963E-01   -0.34637E-01 24744   0.113E+00    0.513E-01
DAV:  11    -0.651811853741E+03   -0.77734E-02   -0.40084E-02 31080   0.399E-01    0.158E-01
DAV:  12    -0.651811461773E+03    0.39197E-03   -0.53709E-03 26480   0.145E-01    0.472E-02
DAV:  13    -0.651811533737E+03   -0.71964E-04   -0.55065E-04 28016   0.444E-02    0.243E-02
DAV:  14    -0.651811528910E+03    0.48277E-05   -0.58061E-05 28480   0.141E-02    0.586E-03
DAV:  15    -0.651811528406E+03    0.50322E-06   -0.67761E-06 31832   0.481E-03    0.306E-03
DAV:  16    -0.651811527460E+03    0.94629E-06   -0.23295E-06 29400   0.357E-03    0.198E-03
DAV:  17    -0.651811527092E+03    0.36843E-06   -0.41791E-07 32576   0.165E-03    0.148E-03
DAV:  18    -0.651811526959E+03    0.13238E-06   -0.15548E-07 26896   0.806E-04    0.101E-03
DAV:  19    -0.651811526850E+03    0.10891E-06   -0.21593E-08 28600   0.349E-04    0.420E-04
DAV:  20    -0.651811526857E+03   -0.69886E-08   -0.12077E-08 29656   0.218E-04    0.823E-05
DAV:  21    -0.651811526889E+03   -0.32000E-07   -0.17120E-09 29576   0.882E-05    0.783E-05
DAV:  22    -0.651811526901E+03   -0.11598E-07   -0.57974E-10 22184   0.546E-05    0.258E-05
DAV:  23    -0.651811526920E+03   -0.19363E-07   -0.14846E-10 13280   0.293E-05    0.125E-05
DAV:  24    -0.651811526930E+03   -0.98862E-08   -0.54677E-11 12968   0.173E-05    0.151E-05
DAV:  25    -0.651811526931E+03   -0.67666E-09    0.67107E-11 12968   0.121E-05    0.110E-05
DAV:  26    -0.651811526932E+03   -0.10041E-08    0.73461E-11 12944   0.116E-05    0.294E-06
DAV:  27    -0.651811526932E+03    0.72760E-10    0.60786E-11 12936   0.762E-06
   1 F= -.65181153E+03 E0= -.65181153E+03  d E =0.000000E+00
 generate k-points for:    4    4    4

 ----------------------------------------------------------------------------- 
|                                                                             |
|           W    W    AA    RRRRR   N    N  II  N    N   GGGG   !!!           |
|           W    W   A  A   R    R  NN   N  II  NN   N  G    G  !!!           |
|           W    W  A    A  R    R  N N  N  II  N N  N  G       !!!           |
|           W WW W  AAAAAA  RRRRR   N  N N  II  N  N N  G  GGG   !            |
|           WW  WW  A    A  R   R   N   NN  II  N   NN  G    G                |
|           W    W  A    A  R    R  N    N  II  N    N   GGGG   !!!           |
|                                                                             |
|      Your generating k-point grid is not commensurate to the symmetry       |
|      of the lattice.  This can cause   slow convergence with respect        |
|      to k-points for HF type calculations                                   |
|      suggested SOLUTIONS:                                                   |
|       ) if not already the case, use automatic k-point generation           |
|       ) shift your grid to Gamma (G) (e.g. required for hex or fcc lattice) |
|                                                                             |
 ----------------------------------------------------------------------------- 

forrtl: severe (41): insufficient virtual memory
Image              PC                Routine            Line        Source             
vasp               0000000005C0F341  Unknown               Unknown  Unknown
vasp               0000000000588856  Unknown               Unknown  Unknown
vasp               0000000000B41D0F  Unknown               Unknown  Unknown
vasp               000000000133174F  Unknown               Unknown  Unknown
vasp               000000000132C372  Unknown               Unknown  Unknown
vasp               0000000000444446  Unknown               Unknown  Unknown
vasp               000000000040A59E  Unknown               Unknown  Unknown
vasp               0000000005CA85D0  Unknown               Unknown  Unknown
vasp               000000000040A487  Unknown               Unknown  Unknown
forrtl: severe (41): insufficient virtual memory
Image              PC                Routine            Line        Source             
vasp               0000000005C0F341  Unknown               Unknown  Unknown
vasp               0000000000588856  Unknown               Unknown  Unknown
vasp               0000000000B41D0F  Unknown               Unknown  Unknown
vasp               000000000133174F  Unknown               Unknown  Unknown
vasp               000000000132C372  Unknown               Unknown  Unknown
vasp               0000000000444446  Unknown               Unknown  Unknown
vasp               000000000040A59E  Unknown               Unknown  Unknown
vasp               0000000005CA85D0  Unknown               Unknown  Unknown
vasp               000000000040A487  Unknown               Unknown  Unknown
forrtl: severe (41): insufficient virtual memory
Image              PC                Routine            Line        Source             
vasp               0000000005C0F341  Unknown               Unknown  Unknown
vasp               0000000000588856  Unknown               Unknown  Unknown
vasp               0000000000B41D0F  Unknown               Unknown  Unknown
vasp               000000000133174F  Unknown               Unknown  Unknown
vasp               000000000132C372  Unknown               Unknown  Unknown
vasp               0000000000444446  Unknown               Unknown  Unknown
vasp               000000000040A59E  Unknown               Unknown  Unknown
vasp               0000000005CA85D0  Unknown               Unknown  Unknown
vasp               000000000040A487  Unknown               Unknown  Unknown
forrtl: severe (41): insufficient virtual memory
Image              PC                Routine            Line        Source             
vasp               0000000005C0F341  Unknown               Unknown  Unknown
vasp               0000000000588856  Unknown               Unknown  Unknown
vasp               0000000000B41D0F  Unknown               Unknown  Unknown
vasp               000000000133174F  Unknown               Unknown  Unknown
vasp               000000000132C372  Unknown               Unknown  Unknown
vasp               0000000000444446  Unknown               Unknown  Unknown
vasp               000000000040A59E  Unknown               Unknown  Unknown
vasp               0000000005CA85D0  Unknown               Unknown  Unknown
vasp               000000000040A487  Unknown               Unknown  Unknown
forrtl: severe (41): insufficient virtual memory
Image              PC                Routine            Line        Source             
vasp               0000000005C0F341  Unknown               Unknown  Unknown
vasp               0000000000588856  Unknown               Unknown  Unknown
vasp               0000000000B41D0F  Unknown               Unknown  Unknown
vasp               000000000133174F  Unknown               Unknown  Unknown
vasp               000000000132C372  Unknown               Unknown  Unknown
vasp               0000000000444446  Unknown               Unknown  Unknown
vasp               000000000040A59E  Unknown               Unknown  Unknown
vasp               0000000005CA85D0  Unknown               Unknown  Unknown
vasp               000000000040A487  Unknown               Unknown  Unknown
forrtl: severe (41): insufficient virtual memory
Image              PC                Routine            Line        Source             
vasp               0000000005C0F341  Unknown               Unknown  Unknown
vasp               0000000000588856  Unknown               Unknown  Unknown
vasp               0000000000B41D0F  Unknown               Unknown  Unknown
vasp               000000000133174F  Unknown               Unknown  Unknown
vasp               000000000132C372  Unknown               Unknown  Unknown
vasp               0000000000444446  Unknown               Unknown  Unknown
vasp               000000000040A59E  Unknown               Unknown  Unknown
vasp               0000000005CA85D0  Unknown               Unknown  Unknown
vasp               000000000040A487  Unknown               Unknown  Unknown
forrtl: severe (41): insufficient virtual memory
Image              PC                Routine            Line        Source             
vasp               0000000005C0F341  Unknown               Unknown  Unknown
vasp               0000000000588856  Unknown               Unknown  Unknown
vasp               0000000000B41D0F  Unknown               Unknown  Unknown
vasp               000000000133174F  Unknown               Unknown  Unknown
vasp               000000000132C372  Unknown               Unknown  Unknown
vasp               0000000000444446  Unknown               Unknown  Unknown
vasp               000000000040A59E  Unknown               Unknown  Unknown
vasp               0000000005CA85D0  Unknown               Unknown  Unknown
vasp               000000000040A487  Unknown               Unknown  Unknown
forrtl: severe (41): insufficient virtual memory
Image              PC                Routine            Line        Source             
vasp               0000000005C0F341  Unknown               Unknown  Unknown
vasp               0000000000588856  Unknown               Unknown  Unknown
vasp               0000000000B41D0F  Unknown               Unknown  Unknown
vasp               000000000133174F  Unknown               Unknown  Unknown
vasp               000000000132C372  Unknown               Unknown  Unknown
vasp               0000000000444446  Unknown               Unknown  Unknown
vasp               000000000040A59E  Unknown               Unknown  Unknown
vasp               0000000005CA85D0  Unknown               Unknown  Unknown
vasp               000000000040A487  Unknown               Unknown  Unknown
forrtl: severe (41): insufficient virtual memory
Image              PC                Routine            Line        Source             
vasp               0000000005C0F341  Unknown               Unknown  Unknown
vasp               0000000000588856  Unknown               Unknown  Unknown
vasp               0000000000B41D0F  Unknown               Unknown  Unknown
vasp               000000000133174F  Unknown               Unknown  Unknown
vasp               000000000132C372  Unknown               Unknown  Unknown
vasp               0000000000444446  Unknown               Unknown  Unknown
vasp               000000000040A59E  Unknown               Unknown  Unknown
vasp               0000000005CA85D0  Unknown               Unknown  Unknown
vasp               000000000040A487  Unknown               Unknown  Unknown
forrtl: severe (41): insufficient virtual memory
Image              PC                Routine            Line        Source             
vasp               0000000005C0F341  Unknown               Unknown  Unknown
vasp               0000000000588856  Unknown               Unknown  Unknown
vasp               0000000000B41D0F  Unknown               Unknown  Unknown
vasp               000000000133174F  Unknown               Unknown  Unknown
vasp               000000000132C372  Unknown               Unknown  Unknown
vasp               0000000000444446  Unknown               Unknown  Unknown
vasp               000000000040A59E  Unknown               Unknown  Unknown
vasp               0000000005CA85D0  Unknown               Unknown  Unknown
vasp               000000000040A487  Unknown               Unknown  Unknown
forrtl: severe (41): insufficient virtual memory
Image              PC                Routine            Line        Source             
vasp               0000000005C0F341  Unknown               Unknown  Unknown
vasp               0000000000588856  Unknown               Unknown  Unknown
vasp               0000000000B41D0F  Unknown               Unknown  Unknown
vasp               000000000133174F  Unknown               Unknown  Unknown
vasp               000000000132C372  Unknown               Unknown  Unknown
vasp               0000000000444446  Unknown               Unknown  Unknown
vasp               000000000040A59E  Unknown               Unknown  Unknown
vasp               0000000005CA85D0  Unknown               Unknown  Unknown
vasp               000000000040A487  Unknown               Unknown  Unknown
forrtl: severe (41): insufficient virtual memory
Image              PC                Routine            Line        Source             
vasp               0000000005C0F341  Unknown               Unknown  Unknown
vasp               0000000000588856  Unknown               Unknown  Unknown
vasp               0000000000B41D0F  Unknown               Unknown  Unknown
vasp               000000000133174F  Unknown               Unknown  Unknown
vasp               000000000132C372  Unknown               Unknown  Unknown
vasp               0000000000444446  Unknown               Unknown  Unknown
vasp               000000000040A59E  Unknown               Unknown  Unknown
vasp               0000000005CA85D0  Unknown               Unknown  Unknown
vasp               000000000040A487  Unknown               Unknown  Unknown
forrtl: severe (41): insufficient virtual memory
Image              PC                Routine            Line        Source             
vasp               0000000005C0F341  Unknown               Unknown  Unknown
vasp               0000000000588856  Unknown               Unknown  Unknown
vasp               0000000000B41D0F  Unknown               Unknown  Unknown
vasp               000000000133174F  Unknown               Unknown  Unknown
vasp               000000000132C372  Unknown               Unknown  Unknown
vasp               0000000000444446  Unknown               Unknown  Unknown
vasp               000000000040A59E  Unknown               Unknown  Unknown
vasp               0000000005CA85D0  Unknown               Unknown  Unknown
vasp               000000000040A487  Unknown               Unknown  Unknown
forrtl: severe (41): insufficient virtual memory
Image              PC                Routine            Line        Source             
vasp               0000000005C0F341  Unknown               Unknown  Unknown
vasp               0000000000588856  Unknown               Unknown  Unknown
vasp               0000000000B41D0F  Unknown               Unknown  Unknown
vasp               000000000133174F  Unknown               Unknown  Unknown
vasp               000000000132C372  Unknown               Unknown  Unknown
vasp               0000000000444446  Unknown               Unknown  Unknown
vasp               000000000040A59E  Unknown               Unknown  Unknown
vasp               0000000005CA85D0  Unknown               Unknown  Unknown
vasp               000000000040A487  Unknown               Unknown  Unknown
forrtl: severe (41): insufficient virtual memory
Image              PC                Routine            Line        Source             
vasp               0000000005C0F341  Unknown               Unknown  Unknown
vasp               0000000000588856  Unknown               Unknown  Unknown
vasp               0000000000B41D0F  Unknown               Unknown  Unknown
vasp               000000000133174F  Unknown               Unknown  Unknown
vasp               000000000132C372  Unknown               Unknown  Unknown
vasp               0000000000444446  Unknown               Unknown  Unknown
vasp               000000000040A59E  Unknown               Unknown  Unknown
vasp               0000000005CA85D0  Unknown               Unknown  Unknown
vasp               000000000040A487  Unknown               Unknown  Unknown
forrtl: severe (41): insufficient virtual memory
Image              PC                Routine            Line        Source             
vasp               0000000005C0F341  Unknown               Unknown  Unknown
vasp               0000000000588856  Unknown               Unknown  Unknown
vasp               0000000000B41D0F  Unknown               Unknown  Unknown
vasp               000000000133174F  Unknown               Unknown  Unknown
vasp               000000000132C372  Unknown               Unknown  Unknown
vasp               0000000000444446  Unknown               Unknown  Unknown
vasp               000000000040A59E  Unknown               Unknown  Unknown
vasp               0000000005CA85D0  Unknown               Unknown  Unknown
vasp               000000000040A487  Unknown               Unknown  Unknown
forrtl: severe (41): insufficient virtual memory
Image              PC                Routine            Line        Source             
vasp               0000000005C0F341  Unknown               Unknown  Unknown
vasp               0000000000588856  Unknown               Unknown  Unknown
vasp               0000000000B41D0F  Unknown               Unknown  Unknown
vasp               000000000133174F  Unknown               Unknown  Unknown
vasp               000000000132C372  Unknown               Unknown  Unknown
vasp               0000000000444446  Unknown               Unknown  Unknown
vasp               000000000040A59E  Unknown               Unknown  Unknown
vasp               0000000005CA85D0  Unknown               Unknown  Unknown
vasp               000000000040A487  Unknown               Unknown  Unknown
forrtl: severe (41): insufficient virtual memory
Image              PC                Routine            Line        Source             
vasp               0000000005C0F341  Unknown               Unknown  Unknown
vasp               0000000000588856  Unknown               Unknown  Unknown
vasp               0000000000B41D0F  Unknown               Unknown  Unknown
vasp               000000000133174F  Unknown               Unknown  Unknown
vasp               000000000132C372  Unknown               Unknown  Unknown
vasp               0000000000444446  Unknown               Unknown  Unknown
vasp               000000000040A59E  Unknown               Unknown  Unknown
vasp               0000000005CA85D0  Unknown               Unknown  Unknown
vasp               000000000040A487  Unknown               Unknown  Unknown
forrtl: severe (41): insufficient virtual memory
Image              PC                Routine            Line        Source             
vasp               0000000005C0F341  Unknown               Unknown  Unknown
vasp               0000000000588856  Unknown               Unknown  Unknown
vasp               0000000000B41D0F  Unknown               Unknown  Unknown
vasp               000000000133174F  Unknown               Unknown  Unknown
vasp               000000000132C372  Unknown               Unknown  Unknown
vasp               0000000000444446  Unknown               Unknown  Unknown
vasp               000000000040A59E  Unknown               Unknown  Unknown
vasp               0000000005CA85D0  Unknown               Unknown  Unknown
vasp               000000000040A487  Unknown               Unknown  Unknown
forrtl: severe (41): insufficient virtual memory
Image              PC                Routine            Line        Source             
vasp               0000000005C0F341  Unknown               Unknown  Unknown
vasp               0000000000588856  Unknown               Unknown  Unknown
vasp               0000000000B41D0F  Unknown               Unknown  Unknown
vasp               000000000133174F  Unknown               Unknown  Unknown
vasp               000000000132C372  Unknown               Unknown  Unknown
vasp               0000000000444446  Unknown               Unknown  Unknown
vasp               000000000040A59E  Unknown               Unknown  Unknown
vasp               0000000005CA85D0  Unknown               Unknown  Unknown
vasp               000000000040A487  Unknown               Unknown  Unknown
forrtl: severe (41): insufficient virtual memory
Image              PC                Routine            Line        Source             
vasp               0000000005C0F341  Unknown               Unknown  Unknown
vasp               0000000000588856  Unknown               Unknown  Unknown
vasp               0000000000B41D0F  Unknown               Unknown  Unknown
vasp               000000000133174F  Unknown               Unknown  Unknown
vasp               000000000132C372  Unknown               Unknown  Unknown
vasp               0000000000444446  Unknown               Unknown  Unknown
vasp               000000000040A59E  Unknown               Unknown  Unknown
vasp               0000000005CA85D0  Unknown               Unknown  Unknown
vasp               000000000040A487  Unknown               Unknown  Unknown
forrtl: severe (41): insufficient virtual memory
Image              PC                Routine            Line        Source             
vasp               0000000005C0F341  Unknown               Unknown  Unknown
vasp               0000000000588856  Unknown               Unknown  Unknown
vasp               0000000000B41D0F  Unknown               Unknown  Unknown
vasp               000000000133174F  Unknown               Unknown  Unknown
vasp               000000000132C372  Unknown               Unknown  Unknown
vasp               0000000000444446  Unknown               Unknown  Unknown
vasp               000000000040A59E  Unknown               Unknown  Unknown
vasp               0000000005CA85D0  Unknown               Unknown  Unknown
vasp               000000000040A487  Unknown               Unknown  Unknown
forrtl: severe (41): insufficient virtual memory
Image              PC                Routine            Line        Source             
vasp               0000000005C0F341  Unknown               Unknown  Unknown
vasp               0000000000588856  Unknown               Unknown  Unknown
vasp               0000000000B41D0F  Unknown               Unknown  Unknown
vasp               000000000133174F  Unknown               Unknown  Unknown
vasp               000000000132C372  Unknown               Unknown  Unknown
vasp               0000000000444446  Unknown               Unknown  Unknown
vasp               000000000040A59E  Unknown               Unknown  Unknown
vasp               0000000005CA85D0  Unknown               Unknown  Unknown
vasp               000000000040A487  Unknown               Unknown  Unknown
forrtl: severe (41): insufficient virtual memory
Image              PC                Routine            Line        Source             
vasp               0000000005C0F341  Unknown               Unknown  Unknown
vasp               0000000000588856  Unknown               Unknown  Unknown
vasp               0000000000B41D0F  Unknown               Unknown  Unknown
vasp               000000000133174F  Unknown               Unknown  Unknown
vasp               000000000132C372  Unknown               Unknown  Unknown
vasp               0000000000444446  Unknown               Unknown  Unknown
vasp               000000000040A59E  Unknown               Unknown  Unknown
vasp               0000000005CA85D0  Unknown               Unknown  Unknown
vasp               000000000040A487  Unknown               Unknown  Unknown
forrtl: severe (41): insufficient virtual memory
Image              PC                Routine            Line        Source             
vasp               0000000005C0F341  Unknown               Unknown  Unknown
vasp               0000000000588856  Unknown               Unknown  Unknown
vasp               0000000000B41D0F  Unknown               Unknown  Unknown
vasp               000000000133174F  Unknown               Unknown  Unknown
vasp               000000000132C372  Unknown               Unknown  Unknown
vasp               0000000000444446  Unknown               Unknown  Unknown
vasp               000000000040A59E  Unknown               Unknown  Unknown
vasp               0000000005CA85D0  Unknown               Unknown  Unknown
vasp               000000000040A487  Unknown               Unknown  Unknown
forrtl: severe (41): insufficient virtual memory
Image              PC                Routine            Line        Source             
vasp               0000000005C0F341  Unknown               Unknown  Unknown
vasp               0000000000588856  Unknown               Unknown  Unknown
vasp               0000000000B41D0F  Unknown               Unknown  Unknown
vasp               000000000133174F  Unknown               Unknown  Unknown
vasp               000000000132C372  Unknown               Unknown  Unknown
vasp               0000000000444446  Unknown               Unknown  Unknown
vasp               000000000040A59E  Unknown               Unknown  Unknown
vasp               0000000005CA85D0  Unknown               Unknown  Unknown
vasp               000000000040A487  Unknown               Unknown  Unknown
forrtl: severe (41): insufficient virtual memory
Image              PC                Routine            Line        Source             
vasp               0000000005C0F341  Unknown               Unknown  Unknown
vasp               0000000000588856  Unknown               Unknown  Unknown
vasp               0000000000B41D0F  Unknown               Unknown  Unknown
vasp               000000000133174F  Unknown               Unknown  Unknown
vasp               000000000132C372  Unknown               Unknown  Unknown
vasp               0000000000444446  Unknown               Unknown  Unknown
vasp               000000000040A59E  Unknown               Unknown  Unknown
vasp               0000000005CA85D0  Unknown               Unknown  Unknown
vasp               000000000040A487  Unknown               Unknown  Unknown
forrtl: severe (41): insufficient virtual memory
Image              PC                Routine            Line        Source             
vasp               0000000005C0F341  Unknown               Unknown  Unknown
vasp               0000000000588856  Unknown               Unknown  Unknown
vasp               0000000000B41D0F  Unknown               Unknown  Unknown
vasp               000000000133174F  Unknown               Unknown  Unknown
vasp               000000000132C372  Unknown               Unknown  Unknown
vasp               0000000000444446  Unknown               Unknown  Unknown
vasp               000000000040A59E  Unknown               Unknown  Unknown
vasp               0000000005CA85D0  Unknown               Unknown  Unknown
vasp               000000000040A487  Unknown               Unknown  Unknown
srun: error: nid01281: tasks 32,36,38,40,44,46,48,52,54,56,60,62: Exited with exit code 41
srun: Terminating job step 4748948.0
slurmstepd: error: *** STEP 4748948.0 ON nid01279 CANCELLED AT 2017-04-28T16:58:38 ***
srun: Job step aborted: Waiting up to 32 seconds for job step to finish.
srun: error: nid01281: tasks 33,35,37,39,41,43,45,47,49,51,53,55,57,59,61,63: Exited with exit code 41
srun: error: nid01281: tasks 34,42,50,58: Killed
srun: error: nid01279: tasks 4,6: Killed
srun: error: nid01279: tasks 0-3,5,7-31: Killed
